formula,id,band_gap,formation_energy,energy_above_hull
TbCuGe,mp-9387,0.0,-0.774910149999999,0.0
K4Na4Mo3(WO4)5,mp-1076205,0.40790000000000015,-1.8033035969310336,0.2765012745138824
Pr(FeSb3)5,mp-685871,0.0,-0.29272730757936455,0.00732733928571605
Hg(CN)2,mp-573909,4.7489,0.4270994449999975,0.42709944499999786
Zr3ZnCu2,mp-1192282,0.0,-0.15596797124999995,0.039722273237179806
Li4Mn3Fe(BO3)4,mp-777429,2.6609999999999996,-2.4598129341163784,0.007295020729157997
LiV4OF11,mp-776414,1.0343,-3.1202360375490192,0.044406640588232626
Rb3LiTbV2O8,mp-1235065,1.1275999999999997,-2.569990248166667,0.07388094982142945
Hf2V3Ge,mp-1224430,0.0,-0.2729898033333337,0.055329994999999244
Li9Mn7O16,mp-1100542,0.0,-2.1303360748599136,0.03497356765623838
CaGa2,mp-1172894,0.17209999999999992,1.8065521883333322,2.4015614366666664
UC2,mp-2486,0.0,-0.1111111783333314,0.0
MnFeCo(PO4)3,mp-760077,0.5024,-2.25167672885331,0.040154148333338746
DyAlCo4,mp-1225293,0.0,-0.234208716944444,0.0686027683333279
NaPrZrFeO6,mp-1521691,0.0,-2.6624934928045976,0.16046563087499965
LiGa3,mp-863257,0.0,-0.2455080211666676,0.008717875749999493
Li2Co3SnO8,mp-772420,0.0,-1.6641749794047607,0.036968742410715905
LaPt,mp-1002104,0.0,-1.2975954149999964,0.0
Na3Hf3Al(PO4)6,mp-2714868,4.764,-3.1332136965404076,0.016864701680752603
MgMn6O11F,mp-2230605,0.06669999999999998,-2.0045608888203272,0.12110933129933077
ZnAg3,mp-1187952,0.0,-0.01577503999999763,0.0
NiC2(SN3)2,mp-1102751,0.0,1.5580257181818176,1.7238878045562744
Ce(YSi)4,mp-1227796,0.0,-0.7971604077777764,0.024323934944444403
MnFeTe,mp-1008872,0.0,-0.10858567153256733,0.12241186652298897
Sm2Ge5Ir3,mp-983234,0.0,-0.7465517680000012,0.0
Rb2LiVS4,mp-558815,1.5836000000000001,-1.4321961479166667,0.0
LaTiAlPbO6,mp-686726,1.8576000000000006,-3.188964083333333,0.05025663190001417
LiMo8(P2O11)4,mp-26051,2.3855,-2.279414547712724,0.009544452981575802
Cd(GaSe2)2,mp-33397,0.0,-0.5763953091964282,0.3089581300000006
Mg2Zr14O5,mp-674528,0.0,-1.2148746408333335,0.2549189803174574
MnIn2NiO6,mp-1188474,0.0,-1.7550423002931033,0.05312556650000033
CaGaGe,mp-541310,0.0,-0.613581221666666,0.0
NaAlH8(NF3)2,mp-1189460,6.496600000000001,-1.9016803347988511,0.013352186851852466
CaSmMnSnO6,mp-1521356,1.0705999999999998,-2.6799212282931038,0.16038028324999942
NaRh(N2O3)4,mp-1221037,0.0,-0.2210207018808771,0.5799301355681816
BaGa2B2O7,mp-560870,3.9841999999999995,-2.761160351319443,0.0
AuSCl5,mp-28192,1.56,-0.6894943167857142,0.0
LiMg6B,mp-1021306,0.0,0.31918516392360985,0.3807109525694443
Tb(SiAg)2,mp-4614,0.0,-0.3662982620000001,0.0
Sr2TbRuO6,mp-6068,0.18789999999999996,-2.845630046166666,0.0
Li5V2Co5O12,mp-771251,0.23229999999999995,-1.6397535290277776,0.3556657557142886
NiAsRh,mp-19768,0.0,-0.4250174258333341,0.0
Lu3In,mp-976949,0.0,-0.31381721999999,0.016917669583335737
Fe3H6C6(N3Cl4)2,mp-634187,1.3614,-0.4098003031896553,0.22141829813792313
KLi3Ca7Ti2Si12(O18F)2,mp-641919,3.5221,-3.3536617966495266,0.0
Li11Ti12(NiO8)4,mp-760001,0.03310000000000013,-2.8532186396045196,0.07674034483049663
Li2CrO3,mp-1280547,1.0792000000000002,-2.2101971269444447,0.0439653616666682
TmTiO3,mp-755525,0.0,-3.5495742373333257,0.06115532025002324
Re3W,mp-974416,0.0,0.12750222375000675,0.12750222375000675
Sr(FeS2)2,mp-530391,0.0,-1.0695235773214276,0.19329287267857165
LaCu13,mp-1194443,0.0,-0.07948058000000101,0.0
Na7La3NbSi3(PO8)3,mp-2715072,2.463,-2.985339904924807,0.09460722101625851
Ca11YAl15Cr4SiO48,mp-697210,0.0,-3.0961290788749993,0.10130169827085833
EuMgPd,mp-1102076,0.0,-0.5998248300000041,0.0
Li2Cu2F5,mp-753388,0.0,-2.2477920523148134,0.07835050611111072
TiSnRu2,mp-865888,0.0,-0.6434530166666654,0.0
CsPrCdTe3,mp-12494,1.5231000000000003,-1.3071435843869732,0.0
EuMgBiSbO6,mp-1523017,0.0,-2.3156688064999997,0.15288689185416438
KMg6Nb,mp-1021364,0.0,0.3276431097187502,0.3276431097187502
PrS,mp-2495,0.0,-2.28301785973958,0.0
Mn4O7F,mp-782669,0.0,-1.8825064218103442,0.08073694704860035
CaTiO2,mp-1385378,0.0,-2.3952647866666688,0.6196497249999986
CsTi(NbCl3)6,mp-778180,0.0,-1.540238341025597,0.017678687596184517
KEuMgWO6,mp-1519582,0.0,-2.602181119225,0.12035904324999436
Lu2CuPt,mp-865847,0.0,-0.904321140833332,0.0
TiMn(Ni2Sn)2,mp-1217085,0.0,-0.29096289265804565,0.04237800097290645
MnNiO3,mp-1180705,0.0,-1.3632280120862064,0.25346269800000076
NaLi5Mn2P2(CO7)2,mp-772307,3.5517999999999996,-2.392455269353606,0.055836010512835266
MgMnO2,mp-1445388,0.0,-0.6496203688577582,1.8836766368750002
MgTi14O25,mp-774738,0.0,-3.3793055627291664,0.009961312062493732
HoZn(BiO3)2,mp-1049283,0.0,-2.1462049719999983,0.08925311718750528
CuReO4,mp-852643,0.0,-0.7814373168055551,0.9848301279861111
NbH,mp-1206371,0.0,-0.1874879193749983,0.0
BeTlAsO4,mp-1227475,3.6850999999999994,-2.0364775951190484,0.0
Li7Mn4CoO12,mp-1175280,0.0,-2.040515043335727,0.05838240156249164
Al3Fe,mp-984873,0.0,-0.15406175750000006,0.17269562333333344
V3(O2F)2,mp-754702,0.4906999999999999,-2.674553020555555,0.0664678638888887
PH30Pt2C10I2NCl2,mp-1196358,3.1727,-0.20028792150297647,0.1440214463411431
Rb4MgTi2(CuS2)4,mp-2228344,0.0,-1.1687658306140343,0.0948189119736842
S,mp-557559,2.4962999999999997,0.031096618973215584,0.031096618973215584
BaCeMg6,mp-1017457,0.0,0.16934580125000087,0.20194141620535744
Ca16HN8,mp-675153,0.0,-0.8757999145499957,0.02958796160000432
Li2Fe3(SiO4)2,mp-759106,2.2295999999999996,-2.388931876444445,0.049815508500001826
TeN2,mp-1445439,0.0,1.0907599377777781,1.0907599377777792
Mg6VMo,mp-1021710,0.0,0.34089491250000004,0.36633810374999953
NaHfMg14,mp-1026645,0.0,0.1233298786637933,0.1233298786637933
CeGa3Ni,mp-1226580,0.0,-0.4995381544999994,0.03568666900000128
ReRuCl2,mp-631417,0.0,1.0348570043749987,1.8187723386111116
Li2NiH8(CO5)2,mp-771916,4.1396999999999995,-1.5599493024637676,0.05219195717391223
MgTl3,mp-978262,0.0,0.04286348374999527,0.051357820833329626