formula,id,band_gap,formation_energy,energy_above_hull
PaTa,mp-1186411,0.0,0.281401289999998,0.281401289999998
Na14Ta5In3(SiO4)12,mp-2712898,3.2805,-2.8783416112111015,0.03222074538617914
Ca2Co2O5,mp-1371368,0.0,-2.106462065833333,0.0869403013888812
BaLi2Si,mp-27454,0.0,-0.25745816291666657,0.0
Fe5O8,mp-1225001,0.0,-1.4536230261538448,0.18532863009615408
UTe(PbO4)2,mp-1191464,1.745,-2.2818281943055534,0.0
NaCeMo8H40C12(S3O17)2,mp-1204389,0.14459999999999984,-1.0228020508468556,0.32313083386458086
Na7MgSi3Sn3(PO8)3,mp-2714709,2.4782,-2.604499838623994,0.04739240014227519
Li2AlNiO4,mp-770400,1.2242,-2.1977341839583335,0.09758182447916663
Nb6CuSe8,mp-1220463,0.0,-0.7826195348333348,0.14871714333333586
Nd4CrS7,mp-1191709,0.0,-1.882509988958332,0.2243124679861106
Na3CoAsCO7,mp-773177,2.6166,-1.9266382930106107,0.0
CdCu2SiS4,mp-6449,0.9802999999999997,-0.7553361756249988,0.0
Na3B6BrO10,mp-1197987,4.726299999999999,-2.6909914770818957,0.0007070717083230704
MnPtN2,mp-1245489,0.0,0.05762532239224072,0.33460448104166574
V2Fe3(SiO4)3,mp-21791,0.0,-2.48185363125,0.093801292312504
MgNb2(O2F)2,mp-2217155,0.0,-2.9832709955555563,0.21968557499999797
Tb3SnC,mp-20750,0.0,1.4510159475000008,1.9633422661111126
Sc2Se3O10,mp-1194798,3.6378,-2.161643829302083,0.0
Ti6O,mp-554098,0.0,-0.8859091449999994,0.0
Ba(BO4)2,mp-1201084,0.0,-1.2746902590530291,0.6945156744318064
NaHf2Zr2P5SO24,mp-2716186,3.742,-3.107885111059817,0.005414520285713209
Mg14CuB,mp-1026874,0.0,0.18862418390625013,0.22151784359374993
Ti(FeSe2)2,mp-675929,0.0,-0.7710259503869048,0.1305040400000017
TiPO4,mp-779587,0.0,-2.7340283532301584,0.07661184461110437
Pr2AlGe6,mp-1190006,0.0,-0.4877963253703683,0.017513728888893354
GaSe3N2Cl5,mp-569902,1.7959,-0.36446184372869345,0.15876562639914304
LaMn3Ni2,mp-16857,0.0,-0.018508836465519114,0.1527848854789271
Li(CoO2)2,mp-754742,0.0,-1.3926115319047614,0.11140816482142846
Co3BiO8,mp-1178443,0.0,-1.1221718918749997,0.05031645756944503
Li3V5P7O29,mp-1177763,0.8812,-2.6027378909090912,0.05146872164773075
Ta3Ru,mp-977390,0.0,-0.22867657175000033,0.0
TiCrAgS4,mp-1238901,0.0,-0.9995227007142853,0.10838128992063023
Li4Ni3TeO8,mp-756871,0.6478999999999999,-1.7261593943749993,0.043624319062500305
Li2CeAl,mp-865629,0.0,-0.1018490511666652,0.09590968333333372
NaHf3Nb(PO4)6,mp-2714017,2.6832000000000003,-3.1655631135972326,0.0042349221904753875
Na5GdO4,mp-755832,2.1312,-1.9915558849999997,0.04027631700000178
Li7Cr4P9O32,mp-27077,2.9121000000000006,-2.6342136862522896,0.05031869048076132
SrMg14V,mp-1028294,0.0,0.15754663312499995,0.17204656812499985
MnO2,mp-33009,0.0,-1.8127765168103462,0.006882928888888529
NpBeO3,mp-973930,0.0,-2.96686544725,0.43241775099999913
Mo(PO3)4,mp-705035,1.8481,-2.4425089968277303,0.05431513303918667
La6S4N3Cl,mp-555012,1.2603999999999997,-2.1910685017857157,0.051216581785709536
Li5V6O5F19,mp-777288,0.0,-2.932955262333334,0.07088637987302349
Eu2In,mp-1095519,0.0,-0.32638727972222625,0.0
Er2CuOs,mp-866100,0.0,-0.310016727499999,0.0
K2PH4O5,mp-1204619,4.5942,-1.8807927428452373,0.03101988711805248
SbH2SO3F7,mp-1197346,5.0502,-2.122917666964286,0.005686365119054848
SeNO4,mp-1209541,1.2906999999999997,-0.6827266373350693,0.23431962388888916
Sm5AgSe8,mp-38805,1.4720999999999997,-1.9384533782440474,0.027896168162202528
Mg(CuN)2,mp-1233072,0.0,0.20029193941666676,0.5143717469166678
Li7Co5O12,mp-1174345,0.0,-1.660657367638888,0.0985459862500031
Na5Y(CO3)4,mp-560919,4.2043,-2.2934559758816615,0.0
NdH4S2NO8,mp-774927,5.351999999999999,-1.9048952548437494,0.0
CuHgSeBr,mp-567720,0.46560000000000024,-0.5522071512109399,0.004254242777778305
Ho9B5S21,mp-1224577,1.4704999999999995,-1.7417590863809493,0.03959315248571382
CeMg30BO32,mp-1039958,0.003200000000001424,-2.886946449518228,0.1511148860814524
Bi11PO20,mp-758223,0.0,-1.696626117020089,0.08083791674480789
Mg4AlB10,mp-1222150,0.0,-0.13136338011110904,0.0
KBi(PO3)4,mp-559020,4.8281,-2.548948226017856,0.0
Be2VPt,mp-1096311,0.0,2.5731436075,3.04559295
Mg14CrCoO16,mp-1035006,0.0,-2.8262118093749993,0.06338978156250086
HfBeO3,mp-1184563,1.0495,-2.884437747499999,0.7660095674999994
Ge19(PBr)4,mp-27625,1.4055,-0.25518086587301575,0.0
CsSbSI2,mp-2646928,0.12309999999999999,-0.9532613599310349,0.13437423199999898
Re3Se2Br5,mp-1173580,0.0031999999999999806,-0.5737086217187496,0.2947680992500006
Ba2EuTa3Ti2O15,mp-1228610,0.0,-3.4315246154855066,0.04207156012693325
Sr2TiSnO6,mp-1519075,2.9853999999999994,-2.9509750259166667,0.02248214974999918
Ba4PrNd(Cu3O7)2,mp-1228202,0.0,-2.146646177467948,0.025549060520820177
MgFe6(O5F)2,mp-2230338,0.0,-1.7609196623684198,0.18780121539473615
Li2MnVP2(HO5)2,mp-849523,0.0,-2.402494546743522,0.029760851547592893
RuSN4(ClO)2,mp-1198427,0.5038,0.4504537369999994,1.2055876786428588
Mn2AlO4,mp-1258376,0.0,-2.0984673529802955,0.44815357535714284
PmTm3,mp-1186668,0.0,-0.005236665624998693,0.0
LiB(S2O7)2,mp-1020060,5.51,-1.904968649624999,0.0
Li17(Co4O9)2,mp-758913,0.666,-1.6951950216666667,0.10686594406976813
NdWNO3,mp-1220201,3.0130000000000003,-2.3164038783333325,0.24434770875000744
Na2CaInP(SO6)2,mp-2713362,2.4709000000000003,-2.37460254679306,0.05926205342105373
MgSc4(Si2O7)2,mp-1233367,0.0,-3.098171913913043,0.4074982354076173
Li2AlPt,mp-30818,0.0,-0.754359220833333,0.0
Ca2CoIrO6,mp-1310548,0.0,-2.0942053987500002,0.029634606000001007
Li2Cr2O7,mp-770895,2.4787,-1.815428348106061,0.07784185334848548
Mg14GaCo,mp-1028413,0.0,0.07528013828125024,0.10896179937500028
Sc2TlV,mp-1096195,0.0,2.524721853888888,2.7110109730555543
CsMg6GaO8,mp-1099261,0.0,-2.1702420423221973,0.6314122962890627
LaCe(SiPd)4,mp-1222952,0.0,-0.8920823094999996,0.004168944000000785
MnSnPt,mp-583030,0.0,-0.08363554431034477,0.29787462402298726
UTiO3,mp-1187736,0.0,-3.103288143166664,0.3075792819999794
Tl2O,mp-551470,0.8411999999999997,-0.6799191766666629,4.31333333352768e-05
Gd3Au,mp-1184461,0.0,-0.2885348199999953,0.13317960750000424
Pb3(NO4)2,mp-1201318,2.1113999999999997,-1.2029845161538453,0.0
ScNb6Cl13O3,mp-667315,0.9312999999999998,-2.1042359389130434,0.0
Tm2Ge6Pt,mp-1206030,0.0,-0.49916643666666816,0.07499317861111265
CaCu2(WO4)2,mp-1041453,1.3795000000000002,-1.9470710763461527,0.13130655182691875
PrTiGe3,mp-1206304,0.0,-0.7168626766666648,0.0
SmGaCo,mp-1219037,0.0,-0.3957565541666674,0.01732447166666784
Mg30SiBO32,mp-1039876,0.7318000000000007,-2.871649360143228,0.1373731020833331
MgZn,mp-1094779,0.0,-0.06304916250000003,0.04320482229999989
MgMnTl(VS2)4,mp-2232214,0.0,-1.0271117150842912,0.20918283389947412
Tb2FeSi4,mp-1217717,0.0,-0.49228703333333357,0.1298429885714265
Sr2TiAlCu2O7,mp-1046756,0.0,-2.57498780775641,0.18647718432692884
Ti2Ni(PO4)3,mp-771314,0.15839999999999943,-2.796230940588624,0.04697680861111131
Eu(InS2)2,mp-1105168,0.0,-1.2833893840476196,0.0
H3CO3,mp-1194227,3.3732,-1.323755901964285,0.06602562991071359
MnTl2H2OF5,mp-24555,0.9937000000000001,-2.1341245872361565,0.0
B5H9N,mp-27893,3.7741,-0.22686154868333402,0.06442807013333418
Nb2Tl2O7,mp-33658,0.0,-2.2993179440151525,0.02854036767856627
Re3Rh,mp-1186923,0.0,-0.16450039687499896,0.0
CuP4S3Br,mp-1196166,1.9334999999999996,-0.4545572231746012,0.0005161641666653338
ZnCoSb2O7,mp-1042576,0.5268999999999999,-1.6105595611363632,0.19434710863636262
LaCoO3,mp-19051,1.0014000000000003,-2.5940281224999993,0.0033163850000006434
NiB12,mp-1104127,0.0,0.2570927782211553,0.29440814658653913
MgAg20(BiO4)4,mp-1234473,0.7324999999999999,-0.694341513373982,0.07529515367479522
Sm2Ge2Ru,mp-22044,0.0,-0.7621618180000042,0.0
Nd2UTe4,mp-33312,0.0,-1.451231658809535,0.0636377116666722
SnO,mp-1245329,0.5356000000000005,-1.2185281751250017,0.1973104661249998
LuNbO4,mp-754614,3.0656000000000003,-3.5736806486111115,0.0057027950000012595
Dy2CdIn,mp-864973,0.0,-0.38843705499999803,0.0
Sr2MgTi6N2O11,mp-1233103,0.0,-3.066873314431818,0.13467655181817761
Ga2Fe2S5,mp-616672,0.0,-0.7118647630555555,0.1596358383333305
Ba2LiTbIrO6,mp-1236502,0.0,-2.4803398122727263,0.20041886743181436
Pt(NO)6,mp-1202899,0.03909999999999991,0.9323652659615396,1.4606813040384656
Ba2Tm2CuPtO8,mp-1214674,0.2841,-2.699742985892857,0.017293019642858454
Mg3Cd,mp-978273,0.0,-0.03327646499999837,0.01759173375000067
Pm(Mg4Al3)4,mp-1186467,0.0,-0.049496812327586195,0.01901779392241787
Pr3TiSb5,mp-1209653,0.21799999999999997,-1.0473081540740736,0.041145208333329464
NaBH4,mp-1101862,6.4072,-0.3854238495833335,0.000329458333332866
Ba3Sr2Re3ClO15,mp-1214717,2.5002000000000004,-2.7912925027083335,0.0
LiCoPO4,mp-863386,2.8406000000000002,-2.327908668758503,0.07372258380952523
Mn4SiTeBr2O7,mp-1193463,2.6948999999999996,-2.0925523160593875,0.0
LiCuPO4F,mp-939375,0.0,2.565087186190477,4.769923674374997
Li5Mn2CoO8,mp-1173979,1.2190999999999996,-2.0224374239080456,0.04691070749999593
MgV2S4(N3Cl2)2,mp-2229444,0.19849999999999968,-0.679381675588236,0.31793490198529195
Li2Ca2Ta3O10,mp-15902,0.0,-3.2056789684509805,0.040174843258272475
Er7Co6Sn23,mp-1197803,0.0,-0.09197370458333312,0.29881468361110297
LiHfSe2,mp-1206373,0.0,-1.482287628697918,0.0
MgSi,mp-1073700,0.0,0.11147514250000039,0.19292421500000012
Li2CdAg,mp-1096684,0.41949999999999976,0.7806571404166665,1.0087581925000002
CaNdMn2O6,mp-720198,0.0,-2.748681809211206,0.0017257462083524189
Sc6Te2Ru,mp-1205898,0.0,-0.7260495203703701,0.07478938150462788
RbP(HO)2,mp-24212,5.1547,-1.6169507703571426,0.0
KMg30BO32,mp-1040196,3.9894000000000003,-2.87629205275651,0.1355175496484371
Tm2MgS4,mp-34116,2.3768000000000002,-2.0746728478571446,0.10044591071428766
UMn3,mp-1187700,0.0,0.13142891655172484,0.16597745301723954
K2AgSbI6,mp-1110949,0.3809999999999998,-0.9833643496166662,0.06595202149999935
Li6Mn3CoO10,mp-1174834,0.07349999999999968,-1.9880523084396557,0.09908090437498984
V3(O2F)2,mp-850979,0.8601000000000001,-2.7041812777777787,0.03683960666666408
MgCo4(AsS)4,mp-2218752,0.0,-0.42198304807692355,0.2965981632307697
Lu2CoB6,mp-505543,0.0,-0.649953777314815,0.0006190608333307424
KGd(MoO4)2,mp-1211455,3.1820000000000004,-2.5126398197708326,0.01568878770833315
Ba2CoC2(O3F)2,mp-562662,3.066,-2.623787583461538,0.00799610230769332
K2TiZnO4,mp-1211941,3.6582000000000003,-2.5208414331666655,0.0
Cs6Ho21S34Cl,mp-1199243,1.9586,-2.3092434160956623,0.0
Ba4Li(IrO4)3,mp-1228761,0.0,-2.1324558774999995,0.010958519322912252
Li2FeF4,mp-849991,2.6491,-2.8249318113095234,0.09510379464285634
KMnH24(C7N4)2,mp-698214,0.2816,-0.06785236917043728,0.23370094166014965
Fe2H6(SeO4)3,mp-1178328,0.0,-1.3435903099796185,0.012176019130438753
MgMoWO6,mp-2217505,1.0505000000000004,-2.277050449999999,0.10215367333333347
MgMn6(O2F)4,mp-2231272,0.25929999999999986,-2.22222959487296,0.19542323673245487
MgGe4(BiO6)2,mp-2230683,2.9318999999999997,-2.00473523236842,0.14904114250000333
ScGe2Ru,mp-1196513,0.0,-0.6668396212499997,0.0
Mg2CdIr,mp-1096201,0.08610000000000007,1.7767775150000007,2.027766079364035
ZrBeB,mp-1215258,0.0,-0.5830500413888894,0.007066213333334126
EuCu(WO4)2,mp-1213368,0.0,-2.242956518333333,0.0130562035416677
NaCaGe3P3(SO8)3,mp-2716507,1.8926,-2.227208235175463,0.0809485423154852
Sc2Al,mp-11220,0.0,-0.366392015,0.0
NbAlNi2,mp-4813,0.0,-0.4310752874999997,0.00719846491666587
Rb4Sn21Hg2,mp-1219835,0.21260000000000012,-0.16192521740740798,0.0
TbNi3Sn2,mp-1217546,0.0,-0.44933261611111025,0.0028966659090894353
LiBi4B3O11,mp-768774,3.3148999999999997,-2.1660900933333336,0.06938929315788744
LiFe4(PO4)3,mp-759000,2.9844999999999997,-2.2899073998630954,0.06781328500001038
CeGaO3,mp-22540,0.0,-2.0899342689181792,0.8752421889000015
MgFe6Sb10(IO3)6,mp-1233080,0.7198000000000002,-1.4333289524390236,0.1125329914821771
La23Mg4Ni7,mp-581781,0.0,-0.18631683573529506,0.0
Ba6Gd2Al4O15,mp-1214682,3.4318999999999997,-3.388511706018519,0.0
CuP(HO)5,mp-505785,0.05479999999999996,-1.4117466465327386,0.15915114937499997
OsClF8,mp-676815,0.23539999999999994,-1.343978879166663,0.06932050241666587
PmAlAu2,mp-862836,0.0,-0.7121874918749995,0.0
Zn2Sb2O5,mp-1046782,1.7828999999999997,-1.284522347222217,0.2600795355555565
NaFeCSO7,mp-768661,1.3477000000000001,-1.8637548771708468,0.05304213166666827
K2PdN2(ClO2)2,mp-613733,2.006,-1.254887081318182,0.06304787309090809
NdCo,mp-1220493,0.0,0.07431147303030627,0.0891310538636354
Fe3O4,mp-31770,0.0,-1.6254769257142843,0.017264410714288303
LiCr4(PO4)3,mp-26913,2.6339,-2.4680236303630942,0.028050514125000703
LiVSiO4,mp-753223,1.5217,-2.77205635297619,0.06948133794642519
Cs6Dy21S34Cl,mp-1197810,1.9469,-2.308367193837596,0.0
NaAlH12(SO7)2,mp-1199345,5.2103,-1.700958800962643,0.0
Hf2IrRh,mp-865178,0.0,-0.9157489999999981,0.0
BaMg14Cr,mp-1026563,0.0,0.17338287812500042,0.1909577664062505
Ca3MnCuO6,mp-1214191,0.6747999999999998,-2.5196409200391865,0.010697913257559755
H4Pd(NO4)2,mp-1193008,1.5880999999999998,-0.9593926166666658,0.009204933555558625
Li2Ni(PO3)4,mp-757511,4.5107,-2.456624816591478,0.09230382627192935
Li5Ca9B7O21F2,mp-1197163,4.2,-3.168073839166666,0.002138624220786589
CsMnP,mp-1077378,0.0,-0.37171517574302254,0.038447830114941794
LiAuF4,mp-12263,2.0738,-2.0171709255555554,0.0035288733333338484
BaSr4,mp-1227650,0.0,-0.003694495999999958,0.0
MoH12C2(S2N)2,mp-1205118,1.8155000000000001,-0.4305166553571423,0.05097187048809371
NaPrTiNbO6F,mp-1220925,2.7726000000000006,-3.356452081261754,0.04121224204542351
Li3MnCoO5,mp-1174200,0.5758000000000001,-1.9037219430431036,0.10045824449999863
Sm2Sn2O7,mp-2883,2.7353000000000005,-2.996390598863636,0.0
Sm2HgO4,mp-1208895,2.2249,-2.8413397975000003,0.0
Sr5Ca3TiMn7O24,mp-1075976,0.0,-2.577306589721264,0.0676383367499831
CrSn(PO4)2,mp-772100,0.21289999999999942,-2.4422768974404767,0.05719366197916198
Li2SnS3,mp-1190364,1.4190999999999998,-1.1318516215277772,0.0006651347916664108
Mg2Si3,mp-1073065,0.0,0.15068132900000036,0.2158405870000002
PuCl2,mp-867358,0.0,-2.152299367916669,0.0
NiPO4F,mp-25468,0.0,-1.7830526495918357,0.24238405053571555
SiBiO3,mp-972827,0.0,-1.8276535864999999,0.7190074119999856
Th4P6PbO24,mp-1217448,4.4866,-3.305091130795917,0.0
AgClO2,mp-997017,0.0,-0.24041331291666612,0.2501594425000002
Tm5Mg,mp-1187640,0.0,0.03026332416666359,0.057878125833330074
V2CoO6,mp-1078719,0.8815,-1.875079347222221,0.2774006950000061
LiMnPO4,mp-585279,2.7916999999999996,-2.4450728465581753,0.18589719107142244
Cu2(SO4)3,mp-768507,0.0,-1.1289868910845655,0.021490654117648944
Ti3FeO7,mp-1103361,1.2912,-2.9142790802272716,0.23724616090910544
Eu2In3Cu,mp-1225787,0.0,-0.34481941166666746,0.034283167499999045
MnCu2Sb,mp-16320,0.0,0.08807061387930837,0.23986448874999944
Ti(ZnN)2,mp-1446325,0.0,-0.36433998666666695,0.458060547000005
Gd3Cu3Sb4,mp-1189617,0.3003,-0.8274542310000002,0.0
Na2Zr2O5,mp-1186029,2.0327,-2.997391982222224,0.1655966099999997
Rb5Dy3Br12,mp-1209352,0.0,-2.1018937926249976,0.01286863327777965
Tc2Pt(NO2)4,mp-1237055,0.0,-0.6631054239999997,0.5106249160000011
Na3Ti3ZnP5SO24,mp-2715915,1.9142,-2.762104872158168,0.03751255056587244
MoRu,mp-1221386,0.0,0.0654167566666608,0.09995914916666493
Mg2C3,mp-28793,1.6533000000000002,0.18446272749999934,0.1844627274999997
BaEuDyWO6,mp-1518565,0.10350000000000037,-3.119353965166667,0.05170714324999892
ThCr2O10,mp-1209755,0.0,-1.6562458449999997,0.3078406578461541
K2ZrHF7,mp-1196802,6.349600000000001,-3.349083267227273,0.0
Li4Mn3Fe(BO3)4,mp-850958,2.9509000000000007,-2.4595225609913776,0.007585393854158795
MgV2O4,mp-18900,0.0,-2.6167936685714293,0.08241092595237731
Co2RuO4,mp-34586,0.0,-1.254153560714285,0.09486064071428668
Ti3Mn3(TeO8)2,mp-756447,0.0,-2.3192283269636014,0.09123869302085552
TaZn2CrO6,mp-1326240,2.4657,-2.3927408282333316,0.11263109050001852
Li4MnCo2O7,mp-1174434,1.4587999999999997,-1.8555195784831693,0.0741829589285663
Pd2(RhS)15,mp-1202732,0.0,-0.4975468644181653,0.031831381317935836
Ti2Si(H2O3)3,mp-1203710,2.8953,-2.1036080819444405,0.038239867916667336
Sr2Al6O11,mp-30906,4.124,-3.455136496447367,0.004651721973703893
VSnRh2,mp-1178762,0.0,-0.34401666624999905,0.08051426312499999
Sr4MgNi2(ClO3)2,mp-2232123,1.3499000000000003,-2.190740654,0.3582620392222218
CeGeO2,mp-1213932,0.0,-2.222061338124999,0.7211694506249993
Li2Mn4OF8,mp-761138,1.1865,-2.816241318059386,0.0797339000000008
CaSeO4,mp-1190405,3.4841000000000006,-1.7910419573437497,0.034759202500000086
ZrFeP,mp-20892,0.0,-1.0515208165476178,0.0
CeMg6C,mp-1100152,0.0,0.24952835156250064,0.30325233437499977
Na8SnSb4,mp-3138,0.2672000000000003,-0.43471648046419087,0.0
TaBe4Mo,mp-1217980,0.0,-0.26201208205555443,0.008573714464284343
Rb2ZnBr4,mp-1200099,3.7189,-1.7925735884523806,0.0006426202380955814
Nd5Zr3(Ni4As3)4,mp-1202368,0.0,-0.8241924785416662,0.0
Na2Cu4S3,mp-17625,0.0,-0.6616953661398459,0.017891746967591438
Dy2Ge5Ir3,mp-1190128,0.0,-0.7157943408333317,0.0030464513518504432
Li3Cr2(PO4)3,mp-26079,2.8178000000000005,-2.659756542696427,0.0052144194999996785
Li8(CoO2)5,mp-754754,0.0,-1.637196654855072,0.11893542127717449
MgZn2Pt,mp-1185617,0.0,-0.4467556412499998,0.01677200571428461
NaSrN,mp-1245463,0.23089999999999966,-0.274327917600574,0.17155706198275844
PBr,mp-1064459,0.0,1.0014417413095238,1.332302301805555
Sm8Ga21Ru11,mp-1219444,0.0,-0.6160509873750015,0.0
Pr2Si5Pt3,mp-1106159,0.0,-0.940660649333332,0.0
Rb2ScSi4O10F,mp-1198458,5.0158000000000005,-3.285929504166667,0.0
Li5Mn(CoO4)2,mp-1173992,0.0,-1.8408224259123553,0.07737705218749813
Na2Hg3S4,mp-505121,1.3273000000000001,-0.6981867725287378,0.0
Ba2LaIrO6,mp-15889,0.0,-2.7092720779999993,0.0
SrCa3(PbO4)2,mp-1218448,1.9231000000000003,-2.5220348299999986,0.005349488392857538
NbGaTc2,mp-1093951,0.04689999999999994,3.200455077499999,3.45809165
MgMn6(OF2)4,mp-1233200,0.32810000000000006,-2.606296544872959,0.15731830421052617
Mg3Cu2(AsO4)3,mp-1210695,0.0,-2.0424615538749995,0.0
K2Mg(CoO2)2,mp-2240456,0.0,-1.2159028532777778,0.5310412766666648
LiB6(H5O)2,mp-1198595,5.3429,-0.6266300858333319,0.12105385748144037
K4Cu4Cl10O,mp-561512,0.2946,-1.4933307969210519,0.0
Mg3Si2,mp-1075810,0.0,0.029846868999999998,0.12758575600000022
Li4V3P8O29,mp-1177226,0.5949,-2.5741985422267315,0.044502897992430235
LiSm6B3O14,mp-1211144,4.510800000000001,-3.5323196663888887,0.0
Zr(FeN)2,mp-1246166,0.0,-0.6578154080000005,0.21174803350000104
MnCd4O5,mp-1176452,0.0,-1.4575711475431021,0.023716083500000096
Li3TiCr3O8,mp-757225,1.9035999999999995,-2.5836119425555553,0.04568604183333491
Li7Mn4CoO12,mp-1175170,0.0,-2.0410765585440607,0.057820886354158496
Cs2RbFeF6,mp-1112167,4.1178,-2.929115013181036,0.0
LiPr2Pa2O8,mp-1235433,0.0,-3.597151657435896,0.17266998160576819
K2OsO6,mp-1080446,0.0,-1.3355528299444432,0.2668599082407379
NiRuBr2,mp-631488,0.0,0.5146335025000024,1.0961713850000017
Tb3CuGeS7,mp-557517,1.5788000000000002,-1.731685516458332,0.0
Nd2Ta6O19,mp-1210137,0.0,-3.0986884182499983,0.09126317504629711
KB6(HO)6,mp-1237093,2.1574,-1.402393257092105,0.2662600203352685
TlSn,mp-1187560,0.0,0.13271716500000252,0.13271716500000252
MgMnPO5,mp-1280694,0.9678999999999998,-2.6339704443842367,0.05271912588542804
NaInSe2,mp-22473,1.0191999999999997,-1.0091971145312488,0.0
BaZn(MoO2)4,mp-1044491,0.0,-1.520744656428572,0.5200902283928492
LuI3O10,mp-1195893,0.2599,-1.24843469922619,0.14431690553571386
Li3FeSiCO7,mp-770822,2.1590999999999996,-2.1931052615384607,0.2144363832692191
Na2LiTlBr6,mp-1111738,0.5730999999999999,-1.2334272937916695,0.12404254675000104
Ga2CoP3NO14,mp-1200913,0.16969999999999996,-1.6249139632823129,0.5614583008234204
Zn4CdSe4S,mp-1215630,1.1071,-0.9326512921874996,0.0184366205000015
LiCu5(PO4)2,mp-778739,0.0,-1.6219989367261896,0.1173167846874934
V2N4O11,mp-795607,0.38329999999999975,0.5582132342647053,1.8692238913235313
InCuSe2,mp-1226514,0.0,-0.49541976953124944,0.06035463625000048
Li5Fe3F14,mp-849291,3.3430999999999997,-2.8543191632575753,0.049820071641406116
Y2Ni3N4,mp-1246796,0.0,-0.6705401383333336,0.17581233111111239
Li3CrPCO7,mp-1177696,0.0,-2.383669718626374,0.07861286944711932
Mg149In,mp-1185594,0.5289000000000001,3.333172222255598e-05,0.002012623466666641
SrCaEuSeO6,mp-1517490,0.0,-2.5282734022343747,0.2157604627499996
Rb4PbO4,mp-779104,1.7171000000000003,-1.525507507777777,0.0
MgHg,mp-1408,0.0,-0.1972285137500016,0.0
SrFeSnWO6,mp-1520229,0.0,-2.0937828909999987,0.18331637449999771
Hf9Re4As,mp-1193669,0.0,-0.4072573105357102,0.0