formula,id,band_gap,formation_energy,energy_above_hull
TeMoWSe2S,mp-1030190,0,-0.425624497,0.210342225
Ca4Fe5(Si3O14)2,mp-1227865,0,-2.38285329,0.173176029
MgSc2Ti2O7,mp-2218205,0,-3.347469295,0.189542369
Mn4P4O13,mp-675297,3.6706,-2.485444275,0.040228386
Sc7Cl12,mp-23186,0,-2.00367984,0.014477623
TbMgCd2,mp-862767,0,-0.283715265,0
CaH8(ClO2)2,mp-721047,5.1469,-1.565691788,0.018236622
C2SF6,mp-1214177,4.3393,-1.305670575,0.561594043
Rb2TaCuI6,mp-1110718,0,-0.871781606,0.217537358
CsRbMg6,mp-1098082,0,0.293907172,0.293907172
Ba6Li2Ti7Nb9O42,mp-773084,0,-3.264810191,0.008465952
CeBiAu2,mp-861888,0,-0.59254116,0
KVO4,mp-1180691,0,-1.684958194,0.31844982
MoN,mp-2811,0,-0.546220419,0
LiVCrP2(HO5)2,mp-759891,1.2542,-2.399212286,0.014030212
Ta3MnN6,mp-1247209,0,-0.90541831,0.189291748
U(TeO3)3,mp-554219,1.7448,-2.136249056,0.007253469
Sr3Mn2O7,mp-19070,0,-2.594314562,0.028049522
Sb2(PO4)3,mp-554631,0,-2.028622817,0.024317048
ZrCr2,mp-1919,0,0.188441572,0.188441573
WO3,mp-2383052,1.2701,-2.187120654,0.000512914
KMoIO6,mp-556136,2.7834,-1.636278919,0
PrCrSb3,mp-1209589,0,-0.589970723,0.00904716
SmAlGe,mp-3077,0,-0.664617273,0
Fe10O9F11,mp-849300,1.1994,-2.084651973,0.087039412
Li3CuOF3,mp-1147575,0.3282,-2.543421483,0.066197861
LiV2O5,mp-19408,1.229,-2.426129369,0.034579933
LiTl3,mp-1185253,0,-0.081129934,0.046669947
Ga2PbS4,mp-1196984,2.3028,-0.952410673,0
CoCuP2O7,mp-21403,0,-2.121726385,0.015177063
Ba2SmWO6,mp-1517191,1.7704,-3.083647112,0
TlAsSe2,mp-30236,1.0901,-0.475694008,0
ThBr2,mp-1208286,0,-1.43229347,0.302175932
La3Ta(Cl3O2)2,mp-1211290,3.5677,-3.232805463,0
Rb2YAuI6,mp-1111786,1.1678,-1.345192362,0.105849493
Rb,mp-1063817,0,0.18116351,0.18116351
LiFeAsCO7,mp-770902,0.0452,-1.713206826,0.069260314
SnS2,mp-1002063,1.8648,-0.396669649,0.076658843
La2(Al3Ir)3,mp-1211311,0,-0.835437317,0
BaNd2Ti3O10,mp-6622,1.9244,-3.646718073,0.008736552
SmCrO4,mp-18956,0,-2.752340161,0
In3B,mp-1184492,0,0.910900078,0.910900078
Na4NbZnSi2PO12,mp-2715754,1.7333,-2.65653193,0.091697717
Mo2P2O11,mp-25266,1.6407,-2.25870572,0.002659273
Hg3Te2IBr,mp-571177,1.2572,-0.552054292,0.010943552
Mg2VW3S8,mp-1247252,0,-1.029452401,0.248139752
KPr(MoO4)2,mp-1211391,3.3438,-2.501411094,0.011090205
Na3Hf3In(PO4)6,mp-2714752,4.4328,-3.042019189,0.014411553
KTlBr3,mp-1111155,0.9246,-1.392390547,0.077235673
Mn4Be3Si3SO12,mp-19314,3.3366,-2.758440926,0
Li7Fe2P7O24,mp-757222,2.5575,-2.547878335,0.068193451
K2Nb3H11C5(Cl3O4)2,mp-1194979,1.118,-1.265716786,0.246208791
KCaAsO12,mp-1180993,0,-0.758910454,0.380141939
BeSiTc2,mp-1093711,0.262,3.178284761,3.511336922
Li2Mn4O5F3,mp-754142,0.254,-2.374562901,0.078350857
Pr2P2OsO,mp-1209685,0,0.07719711,1.899875387
SrMg2,mp-1094331,0,0.029401338,0.106734325
RbMnPO4,mp-556338,0,-2.589683222,0
Ba2HgAu,mp-1095904,0.2661,0.705846717,1.332218034
LaFe9,mp-1247737,0,0.215011349,0.21501135
Li3MnV4O12,mp-754783,0,-2.358036254,0.068965197
Dy2Nb2S7O30,mp-1204935,0.1207,-2.261878362,0.00974647
Ba3CaIr2O9,mp-17448,0,-2.377184717,0
Re3Br7,mp-1210365,0.3599,-0.709541401,0
SrRuO3,mp-1179112,0,-1.570155796,0.496634315
LiV4(PO4)3,mp-758417,1.7856,-2.5412114,0.052023184
LiV2OF5,mp-861457,0.7676,-3.036238732,0.077371949
YGePd,mp-1215971,0,-0.90453426,0.076662725
Nd3U2O10,mp-675770,0.1734,-3.843695059,0
ZrCrCuS4,mp-1239122,0.1494,-1.180121943,0.077599349
Cs2CoSe2,mp-8770,0,-0.904407091,0.021257902
PrCuGe2,mp-978092,0,-0.637492519,0
Rb2YCuCl6,mp-1110685,2.6201,-2.130710342,0.042299687
Ba2PrMgRuO6,mp-2218013,0,-2.376017502,0.420602173
CsEu(WO4)2,mp-1213312,0,-2.45580305,0.012390114
BaWN3,mp-989622,1.2852,-0.821954626,0
KGdGeS4,mp-1104447,0,-1.538552388,0.030727156
Mg149Rh,mp-1185582,0.0438,-0.001471624,0.008088755
SmPtF7,mp-17569,2.3817,-2.916592456,0
TiCrCuS4,mp-1239174,0,-1.13320607,0.052620482
LiLa4FeO8,mp-756904,0.4622,-3.252353667,0.069404508
Er3GaCoS7,mp-1191530,0,-1.738444807,0.062864626
Li2SnO6,mp-1180644,0,-0.979733912,0.515223668
CsHo3,mp-1183916,0,0.730355778,0.730355778
NaNiPO4,mp-776294,3.3445,-2.27712897,0.026357478
K2RuNCl5O,mp-541361,1.7947,-1.498171661,0.000125922
PmSmHg2,mp-983063,0,-0.562610521,0
MnAg2GeTe4,mp-1025568,0,-0.29591649,0.004934027
MgSn5,mp-1094240,0,0.022042943,0.063817638
CsMgMnP3HO10,mp-2229931,2.1389,-2.388970683,0.209588741
TiMn2Ni3(PO4)6,mp-776680,0,-2.311568582,0.088449918
MgAl10O16,mp-757911,4.407,-3.388350681,0.020989553
Ca4P7Ir8,mp-31233,0,-0.998682876,0
HfBi,mp-1212407,0,-0.197893581,0
LiMn6O5F7,mp-1235234,0,-2.411815918,0.144107033
Ta3As,mp-30523,0,-0.374538323,0.009846855
SrCoO3,mp-550781,0,-1.90972754,0.087704892
CuSO5,mp-1104691,0,-0.969867949,0.101525059
SrMnV2(AgO4)2,mp-541777,1.366,-2.112574133,0.029006298
Li9Co7O16,mp-1175515,0,-1.608774102,0.146505517
Ni4(SnSb3)3,mp-1220099,0,-0.251519023,0.002955167
HfAlRu2,mp-864909,0,-0.822498638,0
NdZn2,mp-30800,0,-0.367923294,0
Dy2In3Cu,mp-1225653,0,0.087410186,0.627544289
KNiPS4,mp-662530,0.5294,-0.905382673,0
Kr,mp-974400,7.1667,0.013854593,0.013854593
KCoAu3(CN)6,mp-568906,0,0.094423234,0.23658616
V7O3,mp-542910,0,-0.434902928,0.831080103
Fe2O3F,mp-754938,0,-1.668420441,0.104278437
KV13O20,mp-768095,0.5907,-2.400407267,0.094944132
Si2Ir,mp-1206741,0,-0.540359897,0.058270888
Rb2TlGaBr6,mp-1114007,1.6518,-1.542502132,0.090565026
Fe2Si2SbO9,mp-1103957,0.0116,-2.261910353,0.156063732
BaMn6O12,mp-1228093,0,-2.079815316,0.000560511
V2Cu3O11,mp-1208093,0,-1.014645989,0.383563895
Tb3(Al3Os)4,mp-1208548,0,-0.685107791,0
Sm2ScNbO7,mp-1219154,2.51,-3.676655528,0.032796201
Li9Nb7V12O48,mp-850928,1.0234,-2.585105172,0.088324795
Sr2Ca6Mn7FeO24,mp-1099788,0,-2.394531771,0.095847684
Mn13Fe(SiO11)2,mp-1210713,0,-2.161108546,0.066426149
Li3MgNi3O8,mp-772324,0,-1.542264202,0.063290869
LiMgN,mp-30156,2.2065,-0.808809935,0.002981102
SnS16(Cl2O)2,mp-614997,2.0385,-0.460590014,0.047760743
Na14Cu2O9,mp-778419,0,-1.273733638,0.075670485
Li9Mn2Co5O16,mp-1176145,0.1059,-1.782380794,0.124047478
CeHgPd,mp-1079310,0,-0.609887535,0
FeCuS2,mp-3497,0,-0.513957746,0.121169054
BaNaLaFeO6,mp-1520238,0,-2.18400686,0.158742972
MgIn5,mp-1185918,0,0.04036164,0.056855738
Pm3Sm,mp-1186530,0,0.027195394,0.027195394
FeH16C4(NCl2)2,mp-709074,0.0082,-0.445322473,0.113815829
Li3CrP2O9,mp-850889,0,-2.42907709,0.088023208
PNO,mp-760506,3.9649,-1.412007552,0.066338602
Zn3Cu2(GeO4)3,mp-1325923,0.3811,-1.566482323,0.163031173
Ti2NbPt,mp-1096485,0,2.928548399,3.529110556
V2O5,mp-1245156,1.9387,-2.195974749,0.089973698
ErGa6,mp-1213556,0.0277,1.574793446,1.901323398
K2O,mp-971,1.7072,-1.232443797,0
Mg6CdFe,mp-1022159,0,0.142726127,0.168160226
GaFe7N2,mp-1224930,0,-0.137261605,0.05703512
Zr3Co8Si,mp-1216086,0,-0.253433334,0.131105001
Li5Mn6O12,mp-1638896,1.2066,-2.107757805,0.027114573
Ba3(AlGe)2,mp-10669,0,-0.478304637,0
Ti3Sn,mp-1079460,0,-0.319054466,0
SrFeNi2(PO4)3,mp-1195488,1.4127,-2.487503936,0
CeTl(PSe3)2,mp-1195195,0,-0.914590577,0
Nd2(Zn2Ge)3,mp-11667,0,-0.420282306,0
Pr3GePO9,mp-14328,4.4089,-3.32850209,0
NaZr2ZnF11,mp-15141,5.7246,-3.637391301,0
Cs3ScF6,mp-1112965,6.3471,-3.50613267,0.013341154
Ca2TaMoO6,mp-1366540,1.4283,-3.081179452,0
ThU4(Cu4Pd)5,mp-1217741,0,-0.128726133,0.046151685
Ac2Cl2O,mp-1207291,0.2363,-1.524639032,1.313464733
Lu5Zr3(Ni4As3)4,mp-1196994,0,-0.796999818,0
Mn3Co3(TeO8)2,mp-771946,0,-1.448270741,0.091301773
Tm2CdGe2,mp-1079644,0,-0.669781885,0
Na6ScTa3(SiO4)6,mp-2715430,3.77,-3.097019027,0.022547993
Lu(Fe5Si)2,mp-1222514,0,-0.248877211,0
Cu2WO4,mp-683666,0.6311,-1.244484308,0.281193959
Sr2Cu2TeO7,mp-1046197,0,-1.717825645,0.307541144
Li9Mn2Co5O16,mp-1175660,0.6025,-1.807506864,0.098921408
Ca(TiS2)8,mp-1048589,0,-1.710085916,0
Na7Y2Hf2Si3(PO8)3,mp-2715180,4.2346,-3.116186524,0.02377941
CsLu(MoO4)2,mp-1213334,3.5298,-2.545086881,0.039123073
Th5Sn3,mp-30873,0,-0.567208946,0
DyMg,mp-2077,0,-0.058876588,0
K2AlB5O14,mp-1224633,0.2959,-1.862888325,0.508897923
Li3WN2,mp-1246718,0,-0.622649824,0.250178976
Na6CaSi2Sn3(PO6)4,mp-2715348,2.0352,-2.617895035,0.056780692
Lu2CuAs3,mp-1207304,0.1321,2.309589139,3.467377726
Li9Mn2Co5O16,mp-1100728,0,-1.775239886,0.131188385
Mg6AlZnO8,mp-1033130,0,-2.741952989,0.195487167
Al2ZnS4,mp-1096810,3.0979,-1.189187782,0.000766054
Pm3Er,mp-1186502,0,0.032902696,0.032902696
Na2Ta6Ga2Si7S5O48,mp-2715776,2.6581,-2.738506777,0.040754238
NaNi2H3(SeO5)2,mp-1221027,2.7127,-1.360925424,0
Mg3Te,mp-1185797,0,-0.239216678,0.296568224
ScGa2,mp-11412,0,-0.6096569,0
BiTeRh,mp-1227426,0.162,-0.524436662,0
AlVMoO7,mp-20014,2.0209,-2.457087179,0
LiAlHg2,mp-1096281,0,0.833209243,1.027623384
Mg30BiBO32,mp-1098202,1.8777,-2.865973973,0.119759412
AlWO3,mp-1417649,0,-1.448754538,1.178439271
GdTiCdSbO7,mp-39684,2.3292,-2.78079702,0
BaCaSn3,mp-583645,0,-0.6082998,0.001525398
Mg(FeO2)2,mp-532433,0,-1.982189493,0.180368892
CaIrO3,mp-1079054,0,-1.776031614,0.323336272
LiFeSiO4,mp-859102,1.7212,-2.455145056,0.090872514
PbS,mp-1078500,1.2177,-0.752608416,0.03096096
Na4YTa3Si4(PO12)2,mp-2715064,3.1321,-3.097242108,0.04564997
Ca3V2O7,mp-1370470,0.9998,-2.992108214,0.004302287
HfBr4,mp-1212517,4.2933,-1.628441633,0
Li4VCo3O8,mp-753470,1.1025,-1.917441655,0.086152339
LiCu2F6,mp-863372,0,-2.06880137,0.021086557
Cr3N2,mp-1014454,0,-0.283983616,0.315365839
CoN6(ClO)2,mp-1199578,0.1662,0.427953944,0.879982675
Sr2TiAlCu2O7,mp-1249417,0,-2.575371339,0.186093654
Sr2GdNbO6,mp-1518774,2.8344,-3.411394828,0.02340975
CaNd3,mp-983582,0,0.089137312,0.089137312
Sr2MgTlCuO5,mp-2223136,0,-1.979422581,0.292137291
KOsN2,mp-1246367,0,0.066406223,0.213814446
Eu2Ge3Au,mp-1102390,0,-0.652630449,0
Tl2Ge2Se5,mp-540818,1.4126,-0.610636713,0
Mg14ZnSb,mp-1027899,0,-0.018359881,0.061817389
Ca3Zr17O37,mp-674516,0,-3.603828463,0.141444022
Na2BiO3,mp-780618,0,-1.660193517,0.071364069
KNaCa2(SiO3)8,mp-1226150,0.4556,-2.439827327,0.337154068
CuGe3,mp-1184183,0,0.324850239,0.324850239
MgV6O5F19,mp-2220500,0,-2.834254394,0.065837193
Li2FeH4(SO5)2,mp-770588,4.2367,-1.799384915,0.048862017
MgFe6Sb10(IO3)6,mp-1233566,1.5514,-1.448074267,0.097787677
Mn2Fe3Co3O16,mp-772328,0,-1.265357807,0.123302911
Zr3U7O20,mp-766007,0,-3.703701392,0.304438024
MgZn2(BiO3)4,mp-2230573,0.0727,-1.555268142,0.096607624
MgV5CoO12,mp-2231512,1.0036,-2.319078505,0.133883478
Li9Mn2Co5O16,mp-1175533,0.6106,-1.82724776,0.079180511
Ca2AgRh,mp-1183516,0,-0.299633551,0.034285247
Bi2OsAu,mp-631571,0,0.67933046,0.703252707
LiTaGeO5,mp-1222344,3.7967,-2.755211,0.004194907
Li5BiO4,mp-769040,2.4426,-1.946899936,0.046776341
UMo5O16,mp-32069,0,-2.228384313,0.028353339
Na2PrWO6,mp-1516196,0,-2.403283914,0.093754664
Mg6VSb,mp-1021653,0,0.069429625,0.203220669
Na5Sc4P5SO24,mp-2715082,4.4893,-2.988574724,0.012107037
LaTaZnCrO6,mp-1049235,1.8525,-2.872991134,0.149160914
ZrTaRe2,mp-1096000,0,4.530790722,4.836545284
TmHfOs2,mp-865209,0,-0.546848865,0.084787951
Li2Cu(PO3)4,mp-761911,0.869,-2.436031868,0.043051902
LiCo5O7F,mp-1306750,0.4512,-1.49163336,0.041150249
Li3Co2O5,mp-1174026,0.2071,-1.69072397,0.071618372
Mg3BiO4,mp-1099246,0.2037,-2.086522131,0.536213656
InPH5NO5,mp-764968,3.5128,-1.608998711,0
CaVP2O7,mp-1042009,2.1767,-2.877774508,0.03364917
MgCd5,mp-1094742,0,0.008359679,0.039903622
RbErS2O9,mp-1209674,0.8517,-2.210724635,0.142399038
VGe2,mp-1084800,0,-0.168534333,0.032563328
Rb3Th,mp-1186912,0,1.041367382,1.041367382
Ba3P2(SeO)4,mp-1192881,1.3262,-2.344026897,0.009407831
Tm3Pt4,mp-1105001,0,-1.388354681,0
C4O5F6,mp-556192,5.3178,-1.843271727,0.131479119
MgCrF4,mp-1045314,3.4969,-3.283422548,0.038485505
VZnP2O7,mp-1048243,1.9877,-2.502668441,0.018612591
MgCrGaO4,mp-2239948,2.1823,-2.338087285,0.240445345
TbBPd3,mp-3022,0,-0.654714329,0.112749955
BaF2,mp-8644,5.9306,-4.027698763,0.136285352
LiFeB2O5,mp-774231,2.6882,-2.455479607,0.044136501
NdGd2,mp-582464,0,1.654705084,1.654705084
VO2,mp-634430,0,-2.099689411,0.419910287
Hf6Al2Fe,mp-1224393,0,-0.290239771,0
Cr5Cu(GeO6)2,mp-1213937,0.5471,-2.141990988,0.491229603
InGaS3,mp-504951,2.0937,-0.779560963,0
AlCrMo6(H19O20)2,mp-1201081,3.412,-1.540791688,0.018669321
GeSb3,mp-1184683,0,0.15228952,0.15228952
SrBe2(BO3)2,mp-558981,5.3547,-3.111990917,0.007696537
Cr4(PO4)3,mp-26840,0,-2.466454435,0.033639047
Li9Mn2Co5O16,mp-1176114,0.1897,-1.775697522,0.13073075
LiZrSe2,mp-1001615,0,-1.56655716,0
Eu(YS2)2,mp-38971,0.4536,-2.383239449,0.021692126
SrMg,mp-1094880,0,-0.014495192,0.043504547
H5IO6,mp-1181667,1.266,-0.972418734,0.050645629
MgZn2,mp-1094504,0,0.003534482,0.134164787
Ag(AuS)2,mp-35835,0,-0.05503952,0.051189179
CrHSe3O8,mp-744182,0,-1.186324551,0.265277912
ReTe,mp-974469,0,0.57551395,0.901991908
Rb2Pr2Mg(WO4)4,mp-1234646,2.0543,-2.57917722,0.070761909
Na3Mn2(GeO4)3,mp-1013842,0,-1.943853685,0.064822424
TeMo6,mp-1237627,0,1.794806015,1.870426486
YMn2,mp-558,0,0.16194284,0.16194284
Li4V3P8O29,mp-1177292,1.1292,-2.561971618,0.056729823
PrAsO4,mp-754109,3.7516,-2.583800997,0
Li7Mn11O24,mp-685293,0,-2.04149985,0.023588365
K3B12H12Br,mp-634464,0.6967,0.608533609,1.133596952
LiNi(PO3)4,mp-1176606,0,-2.379929063,0.042138703
LiTiIr2,mp-864930,0,-0.660227134,0
LiMg6Cd,mp-1021276,0,-0.027577209,0.040547069
Nb4CrSe8,mp-17865,0,-0.975836668,0.145682137
Mn3Te,mp-1185993,0,-0.005140127,0.300594262
Sr3CaMn2FeO10,mp-1218360,0,-2.485902621,0.028833956
Ti4Cu2O,mp-1217206,0,-0.842482473,0.122871007
Li6Fe9CoO20,mp-765392,0,-1.683836372,0.068946797
Ag2SO4,mp-660503,1.321,-1.223423661,0.030593033
DyZn5,mp-30627,0,-0.283336274,0.023859817
Ti2ReMo,mp-1096178,0,3.991931009,4.287670178
NaTa3Zn(PO4)6,mp-2713983,1.8389,-2.875446594,0.010230616
Sr2CaI6,mp-771643,3.2767,-1.879390977,0.094405369
USb2F15,mp-1178972,0.3167,-2.9722553,0.059783878
Li4Ti3V2Cr4O18,mp-774581,1.5461,-2.657043618,0.09552908
Zn4As2O9,mp-29437,2.042,-1.764449775,0.00764259
Te2W,mp-1028586,0.6218,-0.077843282,0.038708187
NaCaTiP(SO6)2,mp-2714565,1.4954,-2.558539768,0.08377952
CaSnS3,mp-866951,0,-0.951940843,0.435138811
KFeCuS2,mp-1223472,0,-0.746698394,0.109084377
CaCu3(RuO3)4,mp-6036,0,-1.276576009,0.027269228
C3N4,mp-570572,1.413,0.148286402,0.148286402
FeSnRh2,mp-1097141,0.2374,2.495548781,2.7965725
Li2CuP2O7,mp-6412,0,-2.448397293,0
Lu2SiO5,mp-18195,4.5675,-3.733685698,0.023591111
Sc2NiPt,mp-862368,0,-0.884355425,0
Hf3As,mp-582067,0,-0.640020218,0
MgMn4Zn2O8,mp-2227974,0.3139,-1.916441703,0.192266394
Ta2CuO6,mp-530850,0.0203,-2.546056648,0.026963353
MgWBr4O,mp-2226932,0,-1.450628198,0.157148264
Te3Pd5,mp-1208304,0.0178,0.226210042,0.557620818
InAg(WO4)2,mp-560403,2.1247,-1.899973322,0.021870958
Nb9AsO25,mp-759342,2.1016,-2.902813691,0.000127986
Mg(VS2)2,mp-1407214,0,-1.267229385,0.142961651
MgU2(SiO8)2,mp-1190722,0,-2.084571412,0.526085047
LiAlO2,mp-34993,4.5039,-2.991990422,0.102801655
CaEuHfVO6,mp-1519493,0,-3.262556531,0.140260933
Sr2HoBiO6,mp-1208845,1.8268,-2.865204525,0
Li6OsN4,mp-1029826,0,-0.538013635,0
Mn2NiO3,mp-1221867,0.6211,-1.68182247,0.077112978
Pr6S4N3Cl,mp-556087,1.168,-2.036499069,0.044459719
Dy3Se4,mp-571400,0,-2.057553584,0.058138801
BaLiMg6,mp-1099308,0,0.134452085,0.189684992
TaInS2,mp-22332,0,-1.10424949,0
ErC2,mp-1579,0,-0.195470462,0.080345016
Tb2MgSe4,mp-1232345,1.1144,-1.737895378,0.221604831
Na4Al3Si3ClO16,mp-720111,0.3044,-2.609120479,0.059425833
KNO2,mp-29200,2.3232,-1.285310017,0
Bi14Pb4Cl8O21,mp-1229189,0.5237,-1.605996134,0.085749727
Mg149Be,mp-1185586,0.5244,0.011578638,0.011578638
ZnNi9Ge2,mp-1215729,0,-0.201257304,0.034589103
NdCrO3,mp-19062,1.904,-2.996146958,0.14311416
K3CuPCO7,mp-772819,0.2126,-2.130734224,0.026725782
Th(CuP)2,mp-9581,0.1198,-0.770950678,0
LuWClO4,mp-1103690,3.5573,-2.755428232,0.041176226
Li2Fe3P4(HO4)4,mp-849240,4.1444,-2.216393096,0.021336941
TbPb3,mp-21156,0,-0.296451882,0
Y(TiGa2)2,mp-11445,0,-0.535474724,0.012414277
Li4Fe3Ni3(SbO8)2,mp-761969,0,-1.730743437,0.017598521
TiFeP,mp-1080486,0,-1.03284415,0.029949081
BaSrAg2,mp-1093927,0.1699,1.024428372,1.319214462
CaMgB6(HO)22,mp-720718,4.9561,-1.89715364,0.014579122
Fe13O15,mp-756693,0.9051,-1.483231497,0.077823186
Li4Ni3SbO8,mp-1311728,0,-1.784210305,0.02391331
Nd5Ge3,mp-1465,0,-0.548017641,0.275153719
Li5Mn(CoO4)2,mp-1174028,0,-1.790308816,0.127890662
TiVO4,mp-755748,0,-2.946358805,0.066034531
LaBe13,mp-1193251,0,-0.136425675,0
Li2VF4,mp-1177792,2.9512,-3.058032105,0.036773144
PNO3,mp-1179877,0.292,-1.032399807,0.782203443
Li3Fe2P2(CO7)2,mp-768623,0,-2.177061006,0.045289958
MnSeO5,mp-1239063,0,-1.04063564,0.265406168
LaIn,mp-20582,0,-0.648769407,0
RbGa2P5O16,mp-558390,4.4174,-2.607654131,0
Li7Mn2(CoO4)3,mp-1174485,0.938,-1.89679848,0.063936412
AlFe2W,mp-862288,0,-0.208302922,0
Tb(FeGe)6,mp-21565,0,-0.276174607,0
Nd3CuSiSe7,mp-641534,1.1291,-1.632453711,0
AlGeMo,mp-1228900,0,-0.273077184,0
CeSiAg,mp-1226539,0,-0.385828454,0.032673675
FeCoPt2,mp-1225018,0,0.003732645,0.164205447
K2ScHgBr6,mp-1111989,0,-1.730082087,0.092859212
NaHf2Al2P3(SO8)3,mp-2716297,3.869,-2.779864845,0.028124015
NaNiCSO7,mp-863078,0.0733,-1.741425221,0.045214938
HfP2(H3O5)2,mp-697913,5.2369,-2.037901226,0.01690589
HfMg30CrO32,mp-1038569,0.0207,-2.939352853,0.095339278
Cs3Ti2Cl9,mp-569484,0.2181,-2.07706449,0
Li3Gd3(TeO6)2,mp-1212457,2.8187,-2.736355595,0
ZnCuP2O7,mp-1215559,0.1356,-2.198439387,0.029531327
K2LiMoCl6,mp-1110855,1.4862,-1.707348297,0.037877212
CsMn2V2ClO7,mp-561100,1.8949,-2.304837511,0.003752725
BaIrO3,mp-4307,0,-1.973356372,0.047177417
DyGa2Co3,mp-1106015,0,-0.36075702,0
Mg2InN2,mp-1247445,0,-0.236507015,0.367745543
Sb3O7,mp-1044095,0,-1.350125429,0.085729385
Ba21Al40,mp-567701,0,-0.243331176,0
Mn15CrO32,mp-771190,1.0598,-1.768798501,0.064934253
LiMnSiO4,mp-753095,0.9032,-2.564831415,0.096303137
Cu6Te2Mo2H2Cl4O15,mp-1226362,0,-1.30014387,0.028721806
LiCaUF8,mp-632402,0.3839,-3.767349779,0.025278989
MnOF,mp-752784,0.0751,-2.317912765,0.076082373
P4WO12,mp-767776,2.7895,-2.470505777,0.019781965
Pr5Bi3Br,mp-1209360,0,-1.086570586,0
HoZn(WO3)2,mp-1041307,0.9379,-2.270970411,0.188468139
ScAu2,mp-1018148,0,-0.879585752,0
K3AlO3,mp-9157,2.8977,-2.255357808,0
KZn13,mp-784,0,-0.095411179,0
MgNbV3O8,mp-2219288,0.6724,-2.589043324,0.182946064
NaPO4,mp-1180166,0.0897,-1.670828104,0.531662482
In10Sb9Te,mp-37501,0,-0.101632855,0.132797901
TmMg,mp-1505,0,-0.074637223,0
MgTiCrO4,mp-2227419,0,-2.762676644,0.2156955
CsTmH3,mp-1207081,0,-0.262679505,0.318203783
TiFe2O5,mp-19255,0,-2.306743978,0.073019713
Tm2B6Os,mp-1203429,0,-0.702599367,0
BaMg(FeS2)2,mp-2227518,0,-0.928137596,0.447989392
Li4Nb3Cu3(TeO8)2,mp-774886,0,-2.083409815,0.094079129
Sr6Ca4Cu17O29,mp-1218738,0,-1.614252341,0.025722224
Na6CaTi3Si2(PO6)4,mp-2715370,2.5166,-2.949891726,0.046543599
MgV4(O2F)4,mp-2224725,1.247,-2.61016213,0.123175713
NaHF2,mp-632282,6.6772,-2.278564244,0.19061428
Na6Te(PO5)6,mp-1197343,0.0062,-1.498698572,0.469754394
K3Ce,mp-1185353,0,0.810932111,0.810932111
CuHO2,mp-996999,0,-0.744300856,0.043334231
ZrGa6FeCo5,mp-1215361,0,-0.059450043,0.281200578
CsNaNbOF5,mp-1213599,4.3489,-3.266053156,0
HfGaCo,mp-1224583,0,-0.400335758,0.128868332
MnP4,mp-569522,0.4786,-0.359478628,0
C2SeN2,mp-639826,3.336,0.451397907,0.451397907
HfGaCu,mp-1018714,0,-0.382586553,0
NdEuHg2,mp-1186311,0,-0.584440167,0.000769463
Sc3OsC4,mp-867215,0,-0.437704329,0
NdGa3,mp-567454,0,-0.517058887,0.122349716
Na30Ca20Nb4Si9(S3O16)9,mp-2714668,1.4932,-2.533764908,0.09211344
MgVCrS4,mp-1247080,0,-1.230827206,0.074303551
Er4MgTi2O10,mp-2229324,0,-3.533202777,0.192655024
Ca8Mg5Fe2(SiO3)16,mp-532705,3.5486,-3.225715563,0.026665661
LiMn3(BO3)3,mp-781682,0.1731,-2.398762634,0.086813679
AuCS2Cl3,mp-556112,1.8955,-0.506878316,0.028529479
Li3CrSiCO7,mp-774236,2.8655,-2.496893475,0.037474404
VSb(PO4)2,mp-755953,1.9271,-2.461102741,0.06389976
Cu2Ni11O13,mp-757285,0,-0.158160571,1.015421007
Rb3MgH5,mp-643712,3.0455,-0.283637037,0.007847153
VN,mp-925,0,-1.162422889,0.19010503
NaLiV2O6,mp-769511,2.846,-2.383794988,0.015475568
ScAs,mp-12982,0,-1.102195284,0.483481375
VCrO3,mp-807999,0,0.185744211,2.633730311
La4P9Rh8,mp-1200868,0,-1.10318969,0
HgP2Se,mp-631293,0,0.735410852,0.853871208
Si5O8,mp-1179651,3.4528,-2.513374603,0.298149724
U(HO2)2,mp-626864,1.5566,-2.536036749,0.074179732
Th(CoP)2,mp-1079824,0,-1.039404355,0
MnAl2Fe,mp-1093629,0,2.375522478,2.675108858
Pr3(Co2Sn)4,mp-1209618,0,-0.252396867,0.077958184
Na4Eu2GeP4,mp-1221300,0,-0.615494935,0
Rb6Ti2O7,mp-770408,3.7558,-2.507182109,0
Rb3H(SeO4)2,mp-1219652,3.4013,-1.656922316,0